52
	Energy:      75.9598685
C         -0.42356        1.08491       -1.35409
C         -0.79817        0.67563       -0.07905
C          0.92434        1.21295       -1.66095
C          1.89861        0.93896       -0.69196
C          1.55692        0.53445        0.61305
C          0.17708        0.39813        0.89254
C         -0.24973       -0.03570        2.21918
C          0.66641       -0.36394        3.13674
C          2.10782       -0.29990        2.88748
N          2.51649        0.24570        1.63736
C          3.92242        0.58652        1.34511
C          4.65565       -0.58504        0.70389
C          2.97817       -0.74754        3.82439
C          2.72244       -1.33528        5.13031
C          3.75035       -1.79295        6.05494
C          3.63046       -2.38425        7.26983
C          2.30055       -2.64378        7.82618
C          2.10443       -3.15023        9.04841
C          3.25142       -3.45741        9.89723
C          4.56116       -3.26858        9.39732
C          3.02555       -3.93908       11.19693
C          4.09646       -4.23422       12.03328
C          5.39277       -4.04237       11.57505
C          5.62000       -3.56337       10.27806
N          4.74432       -2.78597        8.06035
C          6.12493       -2.78553        7.53857
C          6.82160       -1.46018        7.81936
H          4.44553        0.87880        2.26380
H          4.00859        1.48420        0.72202
H          4.65358       -1.46372        1.35652
H          5.69757       -0.31413        0.50647
H          4.19760       -0.88044       -0.24481
H          6.28794       -0.62302        7.35835
H          7.83839       -1.47615        7.41460
H          6.88792       -1.25638        8.89234
H          6.71499       -3.62294        7.92825
H          6.12842       -2.97183        6.45782
H         -1.17959        1.29656       -2.10493
H          1.22705        1.52268       -2.65807
H          2.93107        1.04029       -1.00716
H         -1.85465        0.57024        0.15377
H         -1.30845       -0.09491        2.44124
H          0.30203       -0.68454        4.10427
H          4.04051       -0.70472        3.60524
H          1.69185       -1.44924        5.43405
H          4.74727       -1.59593        5.67302
H          1.41939       -2.42687        7.23608
H          1.10440       -3.32916        9.42492
H          6.65655       -3.41855        9.99495
H          6.23626       -4.26058       12.22522
H          3.91933       -4.60568       13.03866
H          2.01253       -4.08375       11.56348
