52
	Energy:     104.6687367
C         -0.25130        0.43141       -1.61453
C         -0.61158       -0.19395       -0.42782
C          1.05634        0.85965       -1.79887
C          2.01253        0.67379       -0.79718
C          1.68124        0.04710        0.44193
C          0.33689       -0.39080        0.58932
C         -0.05344       -1.03075        1.75166
C          0.85568       -1.24724        2.76397
C          2.19549       -0.81788        2.64763
N          2.60003       -0.16392        1.47474
C          4.00919        0.30834        1.34301
C          4.95461       -0.85193        1.01794
C          3.06040       -1.04008        3.69140
C          2.75549       -1.71861        4.99115
C          3.71914       -1.86776        5.92796
C          3.54322       -2.51883        7.28428
C          2.23579       -2.80356        7.73218
C          2.01327       -3.35010        8.98040
C          3.08037       -3.62607        9.81917
C          4.40227       -3.34994        9.38401
C          2.83581       -4.17820       11.08720
C          3.89306       -4.46837       11.94379
C          5.19972       -4.21255       11.54310
C          5.45853       -3.66382       10.28497
N          4.62349       -2.80545        8.12025
C          6.02175       -2.56200        7.67639
C          6.57595       -1.27042        8.27851
H          4.31596        0.87677        2.24556
H          4.15853        1.06543        0.56385
H          4.93666       -1.64492        1.79066
H          5.99395       -0.47119        0.93035
H          4.66082       -1.30754        0.04870
H          5.96225       -0.40890        7.94044
H          7.62141       -1.11913        7.93684
H          6.56637       -1.29431        9.38626
H          6.65921       -3.44132        7.90416
H          6.13168       -2.51227        6.58282
H         -0.98586        0.57840       -2.39592
H          1.33530        1.33865       -2.72913
H          2.99054        1.03106       -1.05766
H         -1.63523       -0.52905       -0.30535
H         -1.07438       -1.37338        1.88072
H          0.46343       -1.75192        3.62896
H          4.08489       -0.71027        3.62836
H          1.77240       -2.10040        5.17789
H          4.67976       -1.46066        5.65670
H          1.35567       -2.59608        7.14778
H          0.99475       -3.55066        9.29380
H          6.49755       -3.49677       10.05119
H          6.02028       -4.44105       12.21138
H          3.69910       -4.89412       12.91990
H          1.82414       -4.38681       11.41563
