56
	Energy:      78.9006156
H         -0.08803        0.53717       -8.02243
C          0.31899       -2.41680       -9.62694
C          0.24791       -1.04081       -9.44116
C         -0.03886       -0.53735       -8.17986
C         -0.26219       -1.40838       -7.10515
C         -0.21716       -2.80779       -7.25858
C          0.09312       -3.29134       -8.55138
C          0.18511       -4.72962       -8.78133
C          0.00275       -5.57762       -7.76362
C         -0.29942       -5.13918       -6.40005
H         -0.46053       -0.94235       -6.14673
H          0.42147       -0.36624      -10.27475
H         -0.61900       -5.70666       -4.40054
H          0.41154       -5.09297       -9.77657
H          0.55290       -2.80574      -10.61462
H         -0.71349      -10.00846       -2.32773
C         -0.01220      -14.05013       -4.31378
C         -0.15184      -12.72048       -4.33478
C         -0.44517      -11.92565       -3.14091
C         -0.44968      -14.06158       -1.86815
C         -0.14490      -14.77187       -3.05303
C          0.03680      -16.16452       -3.04841
C         -0.07385      -16.88366       -1.86403
C         -0.35595      -16.21154       -0.68279
C         -0.53529      -14.82153       -0.68536
H          0.20903      -14.60171       -5.21948
H          0.26688      -16.69386       -3.96946
H          0.06553      -17.96096       -1.86305
H         -0.73247      -14.36420        0.27751
H         -0.03530      -12.23032       -5.29260
C         -0.41565       -6.05425       -5.40837
C         -0.29907       -7.49962       -5.45345
C         -0.45536       -8.38034       -4.31380
C         -0.34882       -9.71605       -4.39213
C         -0.51514      -10.57497       -3.23244
N         -0.45714       -3.73830       -6.19523
C         -0.87240       -3.17300       -4.89629
C          0.33600       -2.88156       -4.01546
H          1.00276       -2.14643       -4.47645
H          0.01182       -2.48615       -3.04789
H          0.92239       -3.78738       -3.83002
H         -1.49506       -2.27888       -5.00841
H         -0.08533       -7.98111       -6.40147
N         -0.64393      -12.64224       -1.92534
C         -1.06222      -11.97726       -0.67538
C          0.14553      -11.51348        0.12922
H          0.78664      -12.35308        0.41485
H          0.75925      -10.80986       -0.44253
H         -0.18089      -11.00934        1.04414
H          0.09037       -6.63453       -7.98085
H         -0.43565      -16.76406        0.25004
H         -1.54429       -3.86203       -4.37111
H         -1.70471      -11.11549       -0.89128
H         -1.71514      -12.60918       -0.06358
H         -0.67221       -7.90111       -3.36170
H         -0.13408      -10.16786       -5.35396
